ITEM: TIMESTEP
0
ITEM: NUMBER OF ATOMS
384
ITEM: BOX BOUNDS xy xz yz pp pp mm
-9.8654637692120968e+00 1.9730927562187400e+01 -9.8654637692120968e+00
0.0000000000000000e+00 1.7087484515944702e+01 0.0000000000000000e+00
0.0000000000000000e+00 4.6727273826000001e+01 0.0000000000000000e+00
ITEM: ATOMS id type x y z vx vy vz fx fy fz
109 3 -1.23318 3.55989 19.9581 0 0 0 0 0 0
114 3 1.23318 3.55989 19.9581 0 0 0 0 0 0
115 3 1.23318 2.13594 19.9584 0 0 0 0 0 0
124 3 1.68043e-08 1.42396 19.9581 0 0 0 0 0 0
217 3 -2.36829e-09 5.87539e-09 23.3636 -0.564509 -1.44541 0.548103 -7.38527e-10 -6.59926e-07 -2.71055e-10
222 3 1.23318 0.711979 23.3636 -1.01574 0.611604 -5.48247 4.59282e-07 5.63323e-07 3.41794e-10
237 3 1.23318 2.13594 23.3636 -1.08322 0.43948 -0.85049 -2.12202e-09 -8.43108e-08 5.19795e-10
117 3 2.46637 8.41112e-09 19.9584 0 0 0 0 0 0
123 3 2.46637 1.42396 19.9581 0 0 0 0 0 0
33 3 4.93273 7.66328e-09 19.9584 0 0 0 0 0 0
34 3 4.93273 1.42396 19.9581 0 0 0 0 0 0
35 3 3.69955 2.13594 19.9584 0 0 0 0 0 0
36 3 3.69955 3.55989 19.9581 0 0 0 0 0 0
247 3 2.46637 2.84791 23.3636 1.44362 -1.37193 1.40021 -2.20008e-06 -5.27723e-07 -4.43962e-10
196 3 3.69955 0.711979 23.3636 -1.97363 -0.87996 -0.373857 1.04845e-06 -1.06369e-06 -2.00365e-10
200 3 3.69955 2.13594 23.3636 -0.117755 -0.7956 -1.40232 5.54818e-07 -2.22974e-06 3.21061e-11
201 3 4.93273 2.84791 23.3636 -0.753336 -1.32594 -0.229948 -2.45845e-07 1.2854e-06 6.03395e-10
205 3 2.46637 4.27187 23.3636 -2.48061 -0.0608244 2.52528 -1.0904e-06 1.2572e-06 -1.71833e-10
6 3 6.16591 2.13594 19.9584 0 0 0 0 0 0
7 3 6.16591 3.55989 19.9581 0 0 0 0 0 0
5 3 7.3991 1.42396 19.9581 0 0 0 0 0 0
96 3 9.86546 1.50322e-08 19.9584 0 0 0 0 0 0
77 3 7.3991 4.27187 19.9584 0 0 0 0 0 0
153 3 6.16591 2.13594 23.3636 0.344787 -0.282136 -2.16178 2.41403e-06 5.21935e-07 -2.07329e-10
150 3 7.3991 2.84791 23.3636 -2.5975 -0.67846 -0.874744 -1.14063e-07 7.57666e-07 3.13288e-10
170 3 9.86546 9.97567e-09 23.3636 4.08472 -2.18293 -0.22005 8.81552e-07 -7.48203e-07 2.04269e-10
254 3 -2.92121e-09 2.84791 23.3636 -0.822336 1.89769 -1.06216 2.24454e-07 3.24757e-07 -2.74718e-10
273 3 -1.23318 3.55989 26.7691 -0.0819011 1.51377 2.26534 -1.19065e-06 5.20261e-07 -6.45075e-07
289 3 1.57851e-08 1.42396 26.7691 -0.738909 1.12525 -0.559104 -1.49379e-06 -2.97752e-07 -6.48871e-07
333 3 1.23318 3.55989 26.7691 2.46781 0.733588 -0.375807 -1.11399e-06 1.01118e-06 -6.48519e-07
337 3 1.23318 2.13594 26.7689 3.56784 -0.961067 -2.8053 5.31633e-07 -4.33719e-07 -3.83724e-08
304 3 2.46637 1.42396 26.7691 1.80536 1.48574 -1.7902 -3.38427e-07 -2.39937e-07 -6.46469e-07
305 3 2.46637 8.62863e-09 26.7689 0.601727 3.39101 -0.351088 1.41552e-06 -3.45394e-07 -3.07406e-08
321 3 4.93273 6.29968e-09 26.7689 0.132527 -0.938462 0.600027 -1.15076e-06 -4.73733e-07 -3.68099e-08
325 3 4.93273 1.42396 26.7691 -3.81721 1.46683 1.32432 -9.50167e-07 1.87627e-06 -6.44812e-07
329 3 3.69955 2.13594 26.7689 -1.04111 4.82957 1.19383 1.20349e-06 -3.29954e-07 -3.09413e-08
330 3 3.69955 3.55989 26.7691 1.074 -2.44764 1.70881 -1.61336e-06 4.91393e-07 -6.36397e-07
145 3 4.93273 4.27187 23.3636 -0.65134 0.308336 0.20256 1.88198e-06 7.06171e-07 -9.53664e-11
212 3 6.16591 0.711979 23.3636 -1.69102 -0.724376 -0.796936 -1.1484e-06 6.04658e-08 -2.17216e-10
301 3 6.16591 2.13594 26.7689 -2.30466 -0.436468 1.61099 2.02555e-06 -1.36147e-06 -3.15452e-08
316 3 6.16591 3.55989 26.7691 -0.461087 -3.75405 0.842057 -2.33102e-06 -1.51167e-07 -6.51401e-07
190 3 8.63228 0.711979 23.3636 0.0693939 0.253397 0.225796 9.94175e-07 1.07121e-06 -2.10743e-10
203 3 7.3991 6.22516e-09 23.3636 0.129177 -1.69434 4.31876 6.05636e-07 -6.46128e-07 -1.41014e-10
313 3 7.3991 1.42396 26.7691 -1.5152 -2.30983 2.32005 -1.76654e-06 6.33898e-07 -6.44712e-07
348 3 8.63228 2.13594 26.7689 1.97844 -2.45903 0.115453 7.2077e-07 -8.53596e-07 -3.48473e-08
375 3 9.86546 1.64037e-08 26.7689 0.0142043 2.14092 -0.872928 1.62659e-06 -1.11862e-06 -3.14294e-08
352 3 7.3991 4.27187 26.7689 2.25541 1.32149 0.896929 1.27642e-06 9.31849e-07 -3.06195e-08
100 3 -3.69955 7.83176 19.9581 0 0 0 0 0 0
116 3 -2.46637 5.69583 19.9581 0 0 0 0 0 0
122 3 -1.23318 6.40781 19.9584 0 0 0 0 0 0
128 3 -1.23318 7.83176 19.9581 0 0 0 0 0 0
38 3 2.46637 4.27187 19.9584 0 0 0 0 0 0
39 3 2.46637 5.69583 19.9581 0 0 0 0 0 0
41 3 1.23318 6.40781 19.9584 0 0 0 0 0 0
42 3 1.23318 7.83176 19.9581 0 0 0 0 0 0
105 3 9.86047e-09 5.69583 19.9581 0 0 0 0 0 0
107 3 -4.27398e-09 4.27187 19.9584 0 0 0 0 0 0
43 3 5.10185e-09 8.54374 19.9584 0 0 0 0 0 0
204 3 1.23318 4.98385 23.3636 -1.49117 0.615903 -0.397552 -1.37819e-07 1.04107e-06 6.3351e-10
211 3 1.23318 6.40781 23.3636 1.69521 0.750887 -0.977122 -7.89172e-07 -1.07563e-06 1.04312e-10
226 3 -6.6494e-09 7.11979 23.3636 -2.154 1.48972 3.10826 8.0206e-07 -3.58847e-07 5.51883e-10
9 3 4.93273 4.27187 19.9584 0 0 0 0 0 0
10 3 4.93273 5.69583 19.9581 0 0 0 0 0 0
13 3 3.69955 7.83176 19.9581 0 0 0 0 0 0
22 3 3.69955 6.40781 19.9584 0 0 0 0 0 0
80 3 6.16591 6.40781 19.9584 0 0 0 0 0 0
142 3 4.93273 7.11979 23.3636 -0.625115 2.21588 -0.545281 3.19019e-07 8.45425e-07 2.27116e-10
165 3 -2.46637 7.11979 23.3636 0.177987 0.0996439 -0.672082 -1.55938e-06 1.31631e-06 -4.36068e-10
195 3 -2.46637 4.27187 23.3636 0.736989 0.40237 -1.36082 -4.60097e-07 -1.50398e-06 3.70474e-10
259 3 -3.69955 7.83176 26.7691 1.24364 -2.40361 1.65039 -1.28073e-06 6.03469e-07 -6.51829e-07
280 3 -2.46637 5.69583 26.7691 -0.358609 2.35796 -1.6722 -1.87751e-06 6.70372e-07 -6.41929e-07
144 3 -1.23318 4.98385 23.3636 -1.49311 1.39473 -2.40902 -8.68644e-07 -7.45051e-07 -2.46671e-10
230 3 -1.23318 6.40781 23.3636 -1.21591 -1.9262 -2.59596 1.69956e-06 1.30682e-06 -2.42533e-10
314 3 -1.23318 6.40781 26.7689 -0.799634 4.55662 -2.14968 1.77332e-06 -7.43361e-07 -2.89854e-08
381 3 -1.23318 7.83176 26.7691 3.31583 0.976555 0.844507 -5.73179e-07 6.60039e-07 -6.45261e-07
206 3 -1.54132e-08 4.27187 23.3636 -0.605481 -0.405268 -2.92622 1.56504e-06 -8.24257e-07 -1.95027e-10
233 3 2.46637 7.11979 23.3636 -2.08877 -4.38127 -1.44097 -1.75071e-06 -9.11188e-07 -4.73264e-10
328 3 -3.07436e-09 4.27187 26.7689 -0.478812 0.222891 0.877928 6.41126e-07 -1.24711e-07 -3.09267e-08
331 3 2.46637 4.27187 26.7689 0.772385 -1.08483 0.157708 2.06729e-06 -1.01004e-06 -2.95564e-08
332 3 2.46637 5.69583 26.7691 0.748792 0.508144 0.286793 -3.54466e-07 9.83188e-07 -6.46439e-07
334 3 1.23318 6.40781 26.7689 -1.73234 -1.34882 1.9129 6.20746e-07 -7.58279e-07 -3.58644e-08
335 3 1.23318 7.83176 26.7691 -1.96568 -0.998137 -2.3442 -4.08494e-07 2.72112e-07 -6.46513e-07
384 3 8.16617e-09 5.69583 26.7691 -0.827817 -1.76966 -2.0699 -9.18948e-07 5.1442e-07 -6.45525e-07
139 3 2.46637 8.54374 23.3636 0.0908681 0.57916 -0.657546 1.79053e-06 7.48504e-07 -2.09572e-10
338 3 6.77634e-09 8.54374 26.7689 -0.280137 2.43481 0.594239 -1.15116e-07 1.61069e-07 -3.45279e-08
132 3 3.69955 6.40781 23.3636 -0.632227 -0.893765 -2.20634 1.0816e-06 -1.2324e-06 5.69391e-11
143 3 6.16591 4.98385 23.3636 -1.55963 -0.127317 0.47715 -1.75891e-06 -2.75566e-07 -5.80497e-10
207 3 3.69955 4.98385 23.3636 -0.878196 -0.604144 -2.6345 3.72992e-07 6.96051e-07 5.63152e-11
319 3 4.93273 4.27187 26.7689 -2.38706 3.24997 -1.05002 1.33971e-06 -1.29611e-06 -3.73294e-08
343 3 4.93273 5.69583 26.7691 1.12405 2.91433 -2.80382 -1.6249e-06 8.93465e-07 -6.48775e-07
353 3 3.69955 6.40781 26.7689 0.650684 -1.88765 -4.56861 -7.30487e-08 -2.63112e-07 -3.53681e-08
355 3 6.16591 6.40781 26.7689 1.13539 -2.59037 0.454461 1.16353e-06 -1.1338e-07 -3.26924e-08
367 3 3.69955 7.83176 26.7691 -2.75837 1.51328 -0.231902 1.79708e-07 1.70947e-07 -6.4021e-07
126 3 -6.16591 12.1036 19.9581 0 0 0 0 0 0
127 3 -6.16591 10.6797 19.9584 0 0 0 0 0 0
26 3 -3.69955 12.1036 19.9581 0 0 0 0 0 0
48 3 -3.69955 10.6797 19.9584 0 0 0 0 0 0
119 3 -4.93273 9.9677 19.9581 0 0 0 0 0 0
155 3 -3.69955 9.25572 23.3636 -0.175882 -1.24608 -2.57104 5.35778e-07 -3.15495e-07 3.85874e-10
97 3 -2.46637 9.9677 19.9581 0 0 0 0 0 0
99 3 -2.46637 8.54374 19.9584 0 0 0 0 0 0
44 3 8.57667e-09 9.9677 19.9581 0 0 0 0 0 0
45 3 -1.23318 10.6797 19.9584 0 0 0 0 0 0
46 3 -1.23318 12.1036 19.9581 0 0 0 0 0 0
24 3 -2.46637 12.8156 19.9584 0 0 0 0 0 0
172 3 -2.46637 8.54374 23.3636 0.762116 -1.00182 -2.29087 -3.26267e-07 -5.03152e-07 1.31293e-10
216 3 -1.23318 9.25572 23.3636 -1.76847 1.19066 -0.745402 -7.97176e-07 5.4871e-09 -5.05247e-11
244 3 7.14467e-09 11.3917 23.3636 -0.0741824 -0.445531 -2.37298 -2.05225e-08 1.88168e-07 7.02771e-10
246 3 -1.23318 10.6797 23.3636 2.62798 -0.598493 -1.62461 -1.45976e-07 2.87282e-07 2.36553e-10
250 3 1.37141e-08 8.54374 23.3636 -2.68959 -2.1667 -1.84137 8.62376e-09 -1.18789e-06 2.43527e-10
14 3 2.46637 8.54374 19.9584 0 0 0 0 0 0
15 3 2.46637 9.9677 19.9581 0 0 0 0 0 0
16 3 1.23318 10.6797 19.9584 0 0 0 0 0 0
17 3 1.23318 12.1036 19.9581 0 0 0 0 0 0
85 3 3.69955 10.6797 19.9584 0 0 0 0 0 0
140 3 3.69955 9.25572 23.3636 2.22103 0.134593 3.00006 3.89991e-07 1.36567e-06 3.29485e-10
347 3 -6.16591 10.6797 26.7689 -0.386191 -1.89936 -2.00244 1.7547e-07 -1.52746e-06 -3.45623e-08
366 3 -6.16591 12.1036 26.7691 1.9021 1.20284 -0.870445 -1.73033e-06 1.24662e-07 -6.45927e-07
166 3 -4.93273 11.3917 23.3636 -3.20419 0.570573 1.43236 -9.63154e-07 1.10623e-06 5.51877e-12
219 3 -3.69955 10.6797 23.3636 0.848009 0.333174 -1.63441 1.31429e-06 -3.58956e-07 2.88078e-10
344 3 -3.69955 12.1036 26.7691 -0.708966 -3.03846 2.53643 1.59611e-07 4.2249e-07 -6.48631e-07
356 3 -4.93273 9.9677 26.7691 -1.28639 -1.42272 1.49615 -2.02523e-06 4.37566e-07 -6.43652e-07
370 3 -3.69955 10.6797 26.7689 4.95291 -2.04463 -0.566767 1.19207e-06 2.11369e-07 -3.10049e-08
225 3 -4.93273 12.8156 23.3636 -2.06468 -1.44872 1.32657 9.37418e-07 1.17931e-07 -9.13568e-11
221 3 -2.46637 11.3917 23.3636 2.6498 -2.48258 -0.772404 -8.25702e-07 -3.03161e-07 -8.06873e-10
351 3 -2.46637 9.9677 26.7691 0.602114 -1.77518 -2.97061 -5.86189e-07 3.17015e-07 -6.47391e-07
358 3 -2.46637 8.54374 26.7689 2.91359 -4.25677 -0.0341224 3.88787e-07 -6.21681e-07 -3.32229e-08
323 3 -1.23318 10.6797 26.7689 5.22068 -3.55334 1.36617 1.43866e-06 -1.18921e-06 -3.40907e-08
339 3 6.86941e-09 9.9677 26.7691 -1.21119 0.560374 -0.435149 -6.67232e-07 4.51164e-07 -6.44691e-07
341 3 -1.23318 12.1036 26.7691 -0.113449 0.216242 -1.37271 -1.15144e-06 8.39223e-07 -6.38887e-07
179 3 1.23318 10.6797 23.3636 2.62426 -2.53598 0.698637 9.42139e-07 -2.70536e-07 -3.35648e-10
181 3 2.46637 11.3917 23.3636 0.359471 -0.195729 -4.1485 1.2725e-07 -4.40493e-07 7.97912e-12
255 3 1.23318 9.25572 23.3636 -0.420732 -3.28081 -1.35024 -1.32651e-06 1.45872e-06 -5.23376e-10
369 3 2.46637 8.54374 26.7689 -0.449274 0.131107 -0.288385 1.04305e-06 -9.73654e-07 -3.02037e-08
371 3 2.46637 9.9677 26.7691 1.53627 0.204777 0.335156 -2.25519e-06 8.3767e-07 -6.44217e-07
374 3 1.23318 10.6797 26.7689 0.683215 1.81989 -0.131522 9.90376e-07 -6.81852e-08 -3.46615e-08
376 3 1.23318 12.1036 26.7691 2.30543 -0.367464 1.01358 -1.3579e-06 -5.31016e-07 -6.48222e-07
311 3 3.69955 10.6797 26.7689 1.40923 -0.177019 -2.61701 2.00099e-06 4.36095e-07 -3.44095e-08
31 3 -6.16591 14.9515 19.9584 0 0 0 0 0 0
32 3 -6.16591 16.3755 19.9581 0 0 0 0 0 0
104 3 -7.3991 14.2396 19.9581 0 0 0 0 0 0
113 3 -8.63228 16.3755 19.9581 0 0 0 0 0 0
187 3 -6.16591 13.5276 23.3636 3.99217 -4.24313 2.19547 -2.33128e-07 -1.27987e-06 6.57522e-11
231 3 -6.16591 14.9515 23.3636 0.644592 -1.38997 1.84348 1.40672e-06 3.93607e-07 -1.87172e-10
177 3 -7.3991 12.8156 23.3636 1.62476 -0.611325 2.93329 6.14999e-07 -8.80723e-07 5.47493e-10
4 3 -2.46637 17.0875 19.9584 0 0 0 0 0 0
2 3 -3.69955 14.9515 19.9584 0 0 0 0 0 0
3 3 -3.69955 16.3755 19.9581 0 0 0 0 0 0
23 3 -2.46637 14.2396 19.9581 0 0 0 0 0 0
28 3 -4.93273 12.8156 19.9584 0 0 0 0 0 0
29 3 -4.93273 14.2396 19.9581 0 0 0 0 0 0
213 3 -4.93273 17.0875 23.3636 -2.54681 -2.26151 -0.169565 -2.40371e-06 1.74822e-07 3.04441e-10
215 3 -4.93273 15.6635 23.3636 -0.971134 1.12845 -5.22552 3.89573e-07 1.08889e-06 4.20664e-10
19 3 -5.28904e-09 12.8156 19.9584 0 0 0 0 0 0
20 3 1.62085e-08 14.2396 19.9581 0 0 0 0 0 0
47 3 -1.23318 14.9515 19.9584 0 0 0 0 0 0
49 3 -1.23318 16.3755 19.9581 0 0 0 0 0 0
87 3 2.46637 12.8156 19.9584 0 0 0 0 0 0
90 3 1.23318 14.9515 19.9584 0 0 0 0 0 0
174 3 1.59419e-08 15.6635 23.3636 -1.55074 -0.0669304 2.60017 -2.39789e-07 9.41236e-08 3.27214e-10
175 3 -1.23318 14.9515 23.3636 -0.0295526 0.300664 -0.0383021 1.74057e-06 7.79943e-07 8.94553e-11
188 3 1.23318 13.5276 23.3636 1.50687 0.400399 -1.34244 -8.1636e-07 6.68688e-07 -4.36435e-10
193 3 -9.5956e-09 12.8156 23.3636 1.08342 -1.55066 3.75532 1.73951e-06 -3.03823e-07 2.7542e-10
154 3 -7.3991 17.0875 23.3636 -1.08109 2.26077 4.12082 1.01692e-06 1.18009e-06 -3.66365e-10
131 3 -7.3991 15.6635 23.3636 -1.52653 -0.217312 -0.824718 -2.50036e-06 -1.23486e-07 -3.00285e-10
306 3 -6.16591 14.9515 26.7689 1.08002 0.328275 -0.568748 5.11472e-07 -2.50271e-07 -2.6136e-08
318 3 -8.63228 16.3755 26.7691 4.49589 -3.01207 1.42244 -1.15672e-06 9.45958e-07 -6.4844e-07
327 3 -6.16591 16.3755 26.7691 2.45487 1.94708 3.4707 -5.73672e-07 1.66122e-07 -6.4574e-07
373 3 -7.3991 14.2396 26.7691 -0.480066 -2.17571 0.150089 -6.93644e-07 6.12986e-07 -6.44583e-07
302 3 -2.46637 17.0875 26.7689 -0.323485 4.03588 -0.0556658 9.88214e-07 7.99445e-07 -3.25965e-08
227 3 -3.69955 13.5276 23.3636 0.582504 -1.74638 0.824727 -7.71603e-07 6.18088e-07 3.53557e-10
235 3 -2.46637 15.6635 23.3636 -1.79657 0.817525 -0.561258 -1.26259e-06 -2.47756e-07 -3.68316e-10
236 3 -2.46637 12.8156 23.3636 0.882801 -0.629826 1.96343 -9.05532e-07 -8.52825e-07 -2.50361e-10
245 3 -3.69955 14.9515 23.3636 0.659804 1.79552 3.26004 3.09781e-07 -1.25613e-06 -8.54882e-12
303 3 -2.46637 14.2396 26.7691 -1.97401 -1.58493 -1.12896 -1.02832e-06 6.04106e-07 -6.43614e-07
307 3 -3.69955 14.9515 26.7689 1.53923 3.89061 2.05505 1.31193e-06 -1.52362e-06 -3.50767e-08
308 3 -4.93273 14.2396 26.7691 -2.72936 -0.949871 1.42317 -1.35091e-06 1.01285e-06 -6.44759e-07
309 3 -3.69955 16.3755 26.7691 -1.25244 1.8056 1.67415 3.14003e-07 -4.54924e-07 -6.48493e-07
312 3 -4.93273 12.8156 26.7689 -4.29141 -1.48894 4.57021 2.00179e-06 5.17105e-08 -3.63425e-08
320 3 -2.46637 12.8156 26.7689 -1.30826 0.513918 2.26441 -3.58488e-07 -1.45913e-07 -3.05378e-08
249 3 -1.23318 13.5276 23.3636 -0.398239 -1.24944 1.51823 -1.34829e-07 7.54041e-07 -1.72707e-11
269 3 2.46637 12.8156 26.7689 -1.73743 -0.812828 2.63494 1.59863e-06 -1.14325e-06 -3.07261e-08
298 3 1.23318 14.9515 26.7689 0.800416 3.38183 0.201193 4.66853e-08 1.06375e-07 -3.53134e-08
378 3 -6.09476e-09 12.8156 26.7689 1.15904 -0.893974 -4.2969 1.21236e-06 -6.49106e-07 -3.46458e-08
379 3 1.74684e-08 14.2396 26.7691 -0.617065 3.48738 2.70797 -1.12096e-06 7.23625e-07 -6.52034e-07
380 3 -1.23318 14.9515 26.7689 -0.954996 1.94977 -1.34699 9.4375e-07 -8.40556e-07 -3.22905e-08
382 3 -1.23318 16.3755 26.7691 2.70293 1.03042 -1.6925 -9.71252e-07 3.21056e-07 -6.40575e-07
50 3 9.86546 1.42396 19.9581 0 0 0 0 0 0
74 3 11.0986 3.55989 19.9581 0 0 0 0 0 0
75 3 8.63228 2.13594 19.9584 0 0 0 0 0 0
76 3 8.63228 3.55989 19.9581 0 0 0 0 0 0
95 3 11.0986 2.13594 19.9584 0 0 0 0 0 0
162 3 9.86546 2.84791 23.3636 0.263525 -0.0522277 0.847469 -2.50613e-06 2.75829e-07 -2.41664e-10
163 3 8.63228 2.13594 23.3636 -1.23903 1.17229 1.83097 -7.65656e-07 4.26959e-07 1.68525e-10
169 3 11.0986 0.711979 23.3636 -0.0440439 -1.3248 0.992382 -2.74221e-07 -1.09176e-06 3.43826e-10
158 3 9.86546 4.27187 23.3636 -1.0865 -1.1103 -1.88284 1.84519e-06 -9.97731e-08 1.95148e-10
65 3 14.7982 1.42396 19.9581 0 0 0 0 0 0
66 3 13.565 2.13594 19.9584 0 0 0 0 0 0
67 3 13.565 3.55989 19.9581 0 0 0 0 0 0
93 3 12.3318 1.47586e-08 19.9584 0 0 0 0 0 0
94 3 12.3318 1.42396 19.9581 0 0 0 0 0 0
68 3 12.3318 4.27187 19.9584 0 0 0 0 0 0
214 3 13.565 2.13594 23.3636 2.24326 5.47744 -2.22367 1.44652e-06 -1.29487e-06 5.27687e-10
229 3 14.7982 2.84791 23.3636 -1.69984 1.24295 1.1574 -1.71235e-06 2.91508e-08 9.88841e-10
238 3 14.7982 4.27187 23.3636 0.361728 1.62891 0.239588 5.39246e-07 3.334e-07 2.21288e-11
103 3 18.4977 2.13594 19.9584 0 0 0 0 0 0
8 3 16.0314 3.55989 19.9581 0 0 0 0 0 0
12 3 16.0314 2.13594 19.9584 0 0 0 0 0 0
18 3 17.2646 1.42396 19.9581 0 0 0 0 0 0
21 3 17.2646 5.81111e-09 19.9584 0 0 0 0 0 0
182 3 18.4977 0.711979 23.3636 3.06014 2.29644 0.303322 3.15985e-08 3.83556e-07 1.4332e-10
194 3 17.2646 1.21083e-08 23.3636 0.391059 1.00979 3.71622 -1.00706e-06 -8.69753e-07 7.36263e-10
192 3 11.0986 2.13594 23.3636 -1.95485 0.826567 -1.30758 1.12385e-06 -1.30063e-06 -1.74796e-10
274 3 11.0986 3.55989 26.7691 -0.686081 -0.288687 -1.64758 -8.29227e-07 8.36965e-07 -6.43919e-07
279 3 11.0986 2.13594 26.7689 0.479707 0.0712143 1.04302 2.39184e-07 -4.6549e-07 -3.22476e-08
350 3 8.63228 3.55989 26.7691 1.7915 0.329441 1.92899 -3.77712e-07 4.57915e-07 -6.47955e-07
365 3 9.86546 1.42396 26.7691 -4.16538 1.90613 3.04067 -9.76155e-07 7.60746e-07 -6.44331e-07
168 3 13.565 0.711979 23.3636 -1.52338 -1.40665 0.351535 5.78362e-07 4.91215e-07 -1.11951e-10
186 3 12.3318 2.84791 23.3636 1.01589 -3.88516 1.04749 3.58169e-07 8.17742e-07 -5.69131e-10
262 3 13.565 3.55989 26.7691 -0.752848 1.60292 2.50059 -1.50085e-06 2.61682e-07 -6.40963e-07
270 3 13.565 2.13594 26.7689 -1.23078 2.24309 1.06992 1.43275e-06 -6.39044e-07 -3.66424e-08
288 3 12.3318 1.42396 26.7691 0.604019 1.40995 -2.05975 -2.35192e-07 5.80379e-07 -6.47129e-07
290 3 12.3318 1.59031e-08 26.7689 0.226315 1.05755 -1.56334 2.90603e-07 -1.05261e-06 -3.17204e-08
294 3 14.7982 1.42396 26.7691 -0.312845 -2.10525 -1.80386 -3.28157e-07 6.65912e-07 -6.49113e-07
220 3 12.3318 4.27187 23.3636 2.65783 -1.55337 -0.230386 -4.66295e-07 1.40644e-06 -4.29686e-10
271 3 12.3318 4.27187 26.7689 1.53106 -1.02165 3.34764 1.16341e-06 2.8273e-07 -3.34584e-08
210 3 18.4977 2.13594 23.3636 0.409103 0.647189 1.26905 1.03383e-06 1.80196e-07 -3.1352e-10
282 3 18.4977 2.13594 26.7689 -2.63177 -1.62004 2.43519 1.00389e-06 -1.03026e-06 -3.24607e-08
129 3 16.0314 2.13594 23.3636 -0.00642881 -0.669955 0.704035 5.56332e-07 -2.66604e-07 -3.62556e-10
148 3 17.2646 2.84791 23.3636 -1.8859 -0.28843 2.2495 -8.05751e-07 1.72025e-06 -9.65419e-11
197 3 16.0314 0.711979 23.3636 0.749494 4.61994 -3.41413 8.02794e-07 -4.11744e-07 -3.71311e-10
310 3 16.0314 3.55989 26.7691 -1.67478 -1.11036 -1.42202 -1.60845e-07 7.93657e-07 -6.50051e-07
315 3 16.0314 2.13594 26.7689 4.51641 -0.401831 -1.85785 -6.96663e-07 -7.30624e-07 -2.94154e-08
368 3 17.2646 1.42396 26.7691 1.40213 -0.0843225 1.10491 7.60611e-09 9.53812e-07 -6.39071e-07
372 3 17.2646 6.82953e-09 26.7689 0.966543 2.69016 1.28658 1.8703e-06 -5.74647e-07 -3.50136e-08
81 3 6.16591 7.83176 19.9581 0 0 0 0 0 0
51 3 8.63228 6.40781 19.9584 0 0 0 0 0 0
52 3 8.63228 7.83176 19.9581 0 0 0 0 0 0
78 3 7.3991 5.69583 19.9581 0 0 0 0 0 0
135 3 8.63228 6.40781 23.3636 -1.47866 -3.21939 -0.848035 -2.1498e-07 1.51162e-06 -9.33586e-11
171 3 7.3991 4.27187 23.3636 -2.76543 2.37611 -2.56071 -5.77417e-07 -2.27934e-06 1.69143e-10
176 3 8.63228 4.98385 23.3636 -0.621906 0.653903 0.639618 -2.65647e-07 -7.54283e-07 -1.04069e-10
141 3 4.93273 8.54374 23.3636 -2.52368 0.287133 -0.555398 2.21577e-07 -6.06548e-08 2.96217e-10
70 3 11.0986 7.83176 19.9581 0 0 0 0 0 0
72 3 9.86546 5.69583 19.9581 0 0 0 0 0 0
73 3 9.86546 4.27187 19.9584 0 0 0 0 0 0
98 3 11.0986 6.40781 19.9584 0 0 0 0 0 0
69 3 12.3318 5.69583 19.9581 0 0 0 0 0 0
30 3 12.3318 8.54374 19.9584 0 0 0 0 0 0
146 3 9.86546 7.11979 23.3636 0.618107 0.429054 -2.77409 -1.95833e-08 9.30092e-07 1.78332e-10
149 3 11.0986 6.40781 23.3636 -3.3244 -1.21588 0.223308 1.30306e-06 -8.72754e-07 9.70813e-11
232 3 12.3318 7.11979 23.3636 0.523565 -2.32002 2.80593 -1.38209e-06 -9.85086e-07 -4.38633e-10
228 3 12.3318 8.54374 23.3636 -1.11714 3.95233 -1.20989 -4.38566e-07 1.53504e-07 2.17955e-10
120 3 17.2646 4.27187 19.9584 0 0 0 0 0 0
11 3 14.7982 4.27187 19.9584 0 0 0 0 0 0
25 3 14.7982 5.69583 19.9581 0 0 0 0 0 0
37 3 13.565 7.83176 19.9581 0 0 0 0 0 0
40 3 13.565 6.40781 19.9584 0 0 0 0 0 0
106 3 16.0314 6.40781 19.9584 0 0 0 0 0 0
218 3 13.565 4.98385 23.3636 -0.0350938 0.163492 0.928516 -1.06308e-06 -1.18586e-07 -2.32277e-10
242 3 16.0314 4.98385 23.3636 0.655151 -1.56191 -0.0722505 4.8251e-07 -2.04469e-07 -2.16577e-10
184 3 6.16591 6.40781 23.3636 -1.61953 -2.66247 -1.64969 1.28136e-07 -4.2886e-07 -1.74071e-10
357 3 6.16591 7.83176 26.7691 2.06691 1.75246 -0.106976 7.35265e-07 7.68724e-07 -6.48259e-07
160 3 7.3991 7.11979 23.3636 1.81602 2.11821 0.60467 -4.00303e-07 9.14398e-07 -1.378e-11
258 3 8.63228 6.40781 26.7689 2.26269 2.34734 -0.295225 4.37007e-07 -6.16175e-07 -3.13494e-08
263 3 8.63228 7.83176 26.7691 2.20968 0.424712 1.98567 -7.08333e-07 4.24339e-07 -6.46719e-07
354 3 7.3991 5.69583 26.7691 2.00721 -1.85366 -2.44601 2.12037e-07 9.186e-08 -6.40017e-07
137 3 11.0986 4.98385 23.3636 -1.33839 2.5547 0.516414 2.65511e-07 6.05929e-07 5.00624e-10
261 3 11.0986 6.40781 26.7689 -1.61015 -0.248595 1.74174 2.04593e-06 -1.07347e-06 -3.50695e-08
283 3 9.86546 4.27187 26.7689 -0.0470357 -1.63026 0.510456 1.05605e-06 -6.98581e-07 -3.43276e-08
284 3 9.86546 5.69583 26.7691 1.65452 -0.67752 -0.347138 -1.79225e-06 4.11372e-07 -6.42447e-07
293 3 11.0986 7.83176 26.7691 0.579796 -0.310953 -4.52589 3.66742e-07 7.12711e-07 -6.47304e-07
257 3 12.3318 5.69583 26.7691 1.03359 0.348978 -1.62883 -2.03575e-06 4.18094e-08 -6.52954e-07
346 3 12.3318 8.54374 26.7689 1.70183 1.92618 -0.74145 -7.29534e-07 2.9608e-07 -3.03178e-08
292 3 17.2646 4.27187 26.7689 0.340033 2.39678 1.03102 1.08177e-06 -1.08646e-06 -3.93648e-08
202 3 14.7982 7.11979 23.3636 1.27241 1.15737 -3.48242 -5.98798e-07 8.3668e-07 3.56078e-10
209 3 13.565 6.40781 23.3636 0.383673 1.52687 0.932788 8.14764e-07 -1.04049e-06 1.72896e-10
324 3 13.565 7.83176 26.7691 -1.61027 -3.69675 0.569988 1.11825e-07 3.30669e-07 -6.39908e-07
326 3 13.565 6.40781 26.7689 0.813981 -0.593619 0.653254 1.06378e-06 -4.53832e-07 -3.23308e-08
336 3 14.7982 5.69583 26.7691 -1.3275 -0.700771 0.942764 -7.94169e-07 3.07519e-07 -6.44529e-07
340 3 14.7982 4.27187 26.7689 -2.2031 -2.86961 -1.42249 8.16652e-07 -4.80568e-07 -2.99565e-08
173 3 16.0314 6.40781 23.3636 1.49247 -1.52899 1.46964 4.99202e-07 -8.1322e-08 -2.25664e-11
297 3 16.0314 6.40781 26.7689 -1.01584 -0.487676 -0.863757 1.27031e-06 1.02138e-07 -3.51432e-08
151 3 14.7982 8.54374 23.3636 2.63046 3.00197 -2.65887 8.80763e-07 -2.73933e-07 -3.70587e-10
56 3 6.16591 10.6797 19.9584 0 0 0 0 0 0
57 3 6.16591 12.1036 19.9581 0 0 0 0 0 0
83 3 4.93273 8.54374 19.9584 0 0 0 0 0 0
84 3 4.93273 9.9677 19.9581 0 0 0 0 0 0
86 3 3.69955 12.1036 19.9581 0 0 0 0 0 0
147 3 6.16591 9.25572 23.3636 2.05192 -0.0751145 -3.9348 -1.62784e-06 -1.12524e-06 4.60145e-10
241 3 6.16591 10.6797 23.3636 1.31805 0.925101 -2.6922 -3.77368e-07 5.35683e-07 5.30798e-11
133 3 2.46637 12.8156 23.3636 0.507924 2.74369 2.64097 1.67583e-07 1.32528e-07 4.53621e-11
53 3 8.63228 10.6797 19.9584 0 0 0 0 0 0
54 3 7.3991 8.54374 19.9584 0 0 0 0 0 0
55 3 7.3991 9.9677 19.9581 0 0 0 0 0 0
60 3 8.63228 12.1036 19.9581 0 0 0 0 0 0
61 3 9.86546 9.9677 19.9581 0 0 0 0 0 0
63 3 9.86546 8.54374 19.9584 0 0 0 0 0 0
92 3 7.3991 12.8156 19.9584 0 0 0 0 0 0
125 3 14.7982 8.54374 19.9584 0 0 0 0 0 0
108 3 11.0986 12.1036 19.9581 0 0 0 0 0 0
121 3 11.0986 10.6797 19.9584 0 0 0 0 0 0
27 3 12.3318 9.9677 19.9581 0 0 0 0 0 0
199 3 11.0986 10.6797 23.3636 0.482584 0.452372 2.46041 -8.54131e-07 1.52396e-07 3.83182e-11
243 3 11.0986 9.25572 23.3636 -0.216765 3.04917 1.10489 -1.10435e-06 8.01545e-07 2.33949e-11
256 3 12.3318 11.3917 23.3636 -0.186287 0.764236 1.01607 -2.62325e-07 4.40484e-07 1.59605e-11
157 3 3.69955 10.6797 23.3636 -0.722133 1.70066 1.47242 -4.19544e-07 -1.07985e-06 6.17503e-11
234 3 4.93273 11.3917 23.3636 -1.39514 1.0835 0.585065 -7.15584e-07 -5.91853e-07 -4.21092e-10
265 3 3.69955 12.1036 26.7691 -1.33011 -0.10819 0.157831 -3.6495e-07 9.84264e-08 -6.46483e-07
287 3 6.16591 10.6797 26.7689 0.844262 -5.35069 -0.730242 1.75464e-06 -1.84438e-06 -3.34796e-08
295 3 6.16591 12.1036 26.7691 0.901425 -1.91593 1.72641 -7.39148e-07 9.09046e-07 -6.43893e-07
360 3 4.93273 8.54374 26.7689 -2.1448 -1.29977 1.29719 -4.53864e-07 -7.56001e-07 -3.35921e-08
362 3 4.93273 9.9677 26.7691 -4.22704 -0.689007 -1.45261 -1.42093e-06 9.44261e-07 -6.51182e-07
252 3 4.93273 12.8156 23.3636 4.26307 0.103331 0.941171 5.51127e-07 1.50062e-07 -2.48412e-10
281 3 4.93273 12.8156 26.7689 -1.77761 -0.658461 -4.14704 -8.37176e-07 -9.83816e-08 -2.95651e-08
130 3 8.63228 10.6797 23.3636 -1.93273 0.449252 -0.0259814 4.5351e-07 -1.26386e-07 -3.02147e-10
156 3 7.3991 8.54374 23.3636 -0.677465 1.2832 -0.84446 7.77152e-07 -1.38904e-06 7.61077e-11
185 3 9.86546 11.3917 23.3636 0.721622 1.31693 2.23329 7.14763e-07 -1.04435e-06 4.17861e-10
239 3 9.86546 8.54374 23.3636 0.986505 -0.905584 2.04928 7.12179e-07 -7.54154e-07 5.78098e-11
240 3 7.3991 11.3917 23.3636 -1.32839 -1.81413 -1.9068 5.43638e-07 1.44608e-06 -3.54065e-10
251 3 8.63228 9.25572 23.3636 -1.8438 -2.19006 1.18702 2.62637e-07 5.35977e-07 -3.50215e-10
264 3 9.86546 9.9677 26.7691 -2.95804 -2.57768 0.327867 -1.53539e-06 1.03268e-06 -6.50298e-07
266 3 7.3991 8.54374 26.7689 1.04412 -1.58582 0.808646 -1.08064e-07 -5.40174e-07 -3.17254e-08
272 3 7.3991 9.9677 26.7691 0.982425 2.02208 0.364198 -1.66713e-06 -3.55415e-08 -6.37602e-07
276 3 9.86546 8.54374 26.7689 -1.09979 -1.64354 -0.520313 2.10928e-07 -1.10957e-06 -3.80349e-08
278 3 8.63228 10.6797 26.7689 2.5537 1.169 1.79468 1.28001e-06 7.99346e-07 -3.19987e-08
299 3 8.63228 12.1036 26.7691 1.3996 -2.01268 0.168437 -1.18091e-06 1.55483e-07 -6.47607e-07
180 3 7.3991 12.8156 23.3636 2.75407 -1.61344 -0.746966 4.61096e-07 2.59045e-09 3.33306e-10
260 3 7.3991 12.8156 26.7689 2.54282 -2.21021 -0.888324 2.27538e-06 9.36226e-08 -3.98953e-08
191 3 13.565 10.6797 23.3636 1.68863 -0.886 -0.960263 2.99728e-07 -5.54301e-09 -4.50676e-10
359 3 14.7982 8.54374 26.7689 -1.56405 2.095 0.605446 1.59317e-06 -1.17914e-06 -3.52438e-08
317 3 11.0986 12.1036 26.7691 -1.66777 -0.184196 -0.675503 -5.20821e-07 1.88995e-07 -6.44933e-07
322 3 11.0986 10.6797 26.7689 2.27369 1.92105 2.55709 2.48603e-06 -9.27693e-07 -3.09102e-08
224 3 13.565 9.25572 23.3636 2.09574 -1.52554 1.80541 4.18984e-07 2.39802e-07 1.63951e-10
345 3 12.3318 9.9677 26.7691 -3.19533 -2.12746 1.58333 -5.75634e-07 1.33212e-06 -6.43534e-07
88 3 2.46637 14.2396 19.9581 0 0 0 0 0 0
91 3 1.23318 16.3755 19.9581 0 0 0 0 0 0
62 3 3.69955 16.3755 19.9581 0 0 0 0 0 0
71 3 3.69955 14.9515 19.9584 0 0 0 0 0 0
134 3 2.46637 15.6635 23.3636 2.65127 -0.420195 0.0390077 -9.89512e-07 8.83545e-07 1.07505e-10
159 3 3.69955 13.5276 23.3636 0.0265669 2.94422 -2.06769 -1.25119e-06 -4.69935e-07 3.11916e-10
223 3 3.69955 14.9515 23.3636 1.00792 -1.33122 -3.38198 2.08177e-06 -7.06931e-07 4.38867e-10
64 3 4.93273 17.0875 19.9584 0 0 0 0 0 0
58 3 4.93273 12.8156 19.9584 0 0 0 0 0 0
59 3 4.93273 14.2396 19.9581 0 0 0 0 0 0
79 3 6.16591 16.3755 19.9581 0 0 0 0 0 0
82 3 6.16591 14.9515 19.9584 0 0 0 0 0 0
89 3 7.3991 14.2396 19.9581 0 0 0 0 0 0
253 3 6.16591 13.5276 23.3636 -1.58202 2.8364 0.0322874 8.62425e-07 8.25751e-07 3.22653e-10
161 3 7.3991 15.6635 23.3636 -0.683565 1.4424 -3.93191 -2.29725e-06 1.12735e-07 -2.82936e-10
1 3 9.86546 17.0875 19.9584 0 0 0 0 0 0
101 3 9.86546 14.2396 19.9581 0 0 0 0 0 0
110 3 9.86546 12.8156 19.9584 0 0 0 0 0 0
111 3 8.63228 14.9515 19.9584 0 0 0 0 0 0
112 3 11.0986 14.9515 19.9584 0 0 0 0 0 0
118 3 8.63228 16.3755 19.9581 0 0 0 0 0 0
102 3 12.3318 12.8156 19.9584 0 0 0 0 0 0
136 3 8.63228 14.9515 23.3636 -0.379599 -0.935185 3.1458 8.85806e-07 4.58128e-07 -6.58426e-11
152 3 8.63228 13.5276 23.3636 -1.64403 -1.21151 -2.38294 -2.63378e-06 -6.03163e-07 1.24942e-10
167 3 2.46637 17.0875 23.3636 0.119845 -4.27903 4.15327 -1.13303e-06 1.25491e-06 -1.79686e-10
178 3 1.23318 14.9515 23.3636 -1.89054 2.24542 1.17044 -1.15357e-06 -1.079e-06 -3.06247e-10
267 3 2.46637 14.2396 26.7691 -0.323644 -0.245319 0.410972 -9.17597e-08 1.23327e-06 -6.42301e-07
275 3 1.23318 16.3755 26.7691 3.02882 3.82877 1.63969 -7.21223e-07 9.89622e-07 -6.48655e-07
285 3 3.69955 16.3755 26.7691 1.27262 -1.39921 -1.69396 -1.25586e-06 -1.18828e-07 -6.38176e-07
300 3 3.69955 14.9515 26.7689 -1.10917 1.80221 -1.02655 1.87597e-06 -9.80357e-07 -3.35955e-08
198 3 4.93273 17.0875 23.3636 1.31775 -0.742814 -2.07101 -3.59689e-07 4.75893e-08 -5.04554e-10
291 3 4.93273 17.0875 26.7689 1.24831 0.639835 1.32386 6.47587e-07 3.53912e-07 -3.57451e-08
189 3 6.16591 14.9515 23.3636 1.52077 3.1011 -0.324148 1.73411e-06 -4.79793e-07 -2.00912e-10
208 3 4.93273 15.6635 23.3636 -0.265294 0.0571566 0.678124 -5.53805e-07 7.89688e-07 -6.70014e-11
277 3 4.93273 14.2396 26.7691 -1.82259 1.07633 -0.554235 -1.92229e-06 8.69537e-07 -6.44303e-07
349 3 6.16591 14.9515 26.7689 -1.29843 2.28074 1.91675 1.40214e-06 -1.13362e-06 -3.32112e-08
364 3 6.16591 16.3755 26.7691 -1.42217 1.80812 -1.65777 -1.36111e-06 5.6695e-07 -6.51417e-07
361 3 7.3991 14.2396 26.7691 -0.53147 1.74576 -0.0291023 -7.39586e-07 -2.15675e-08 -6.50007e-07
296 3 9.86546 17.0875 26.7689 1.72403 -1.65959 2.89813 2.61699e-07 4.06524e-07 -3.27057e-08
138 3 11.0986 14.9515 23.3636 1.1407 4.42867 0.487249 9.14598e-07 -1.11002e-06 1.17156e-10
164 3 11.0986 13.5276 23.3636 -0.0817475 -1.017 0.857714 -5.49511e-07 2.21062e-06 -3.85719e-10
183 3 9.86546 12.8156 23.3636 -2.73844 -0.564009 -0.347607 1.2203e-06 -8.95189e-07 -2.5557e-10
248 3 9.86546 15.6635 23.3636 -2.30174 -0.632995 -0.724727 4.1491e-07 2.98733e-07 5.82218e-11
268 3 9.86546 14.2396 26.7691 -4.81512 -1.34319 -0.952932 -1.06671e-06 1.30161e-06 -6.42828e-07
286 3 8.63228 14.9515 26.7689 -0.404847 2.96976 1.10231 -5.93194e-08 -4.55797e-08 -2.88028e-08
342 3 11.0986 14.9515 26.7689 -0.46629 -0.461782 0.504052 1.90496e-06 -1.36685e-06 -4.03803e-08
363 3 9.86546 12.8156 26.7689 3.42749 0.781653 0.581264 1.35691e-07 -1.31628e-06 -2.83535e-08
383 3 8.63228 16.3755 26.7691 1.15653 -2.11132 0.634463 -4.49827e-07 6.95573e-08 -6.41453e-07
377 3 12.3318 12.8156 26.7689 -2.54885 0.264145 0.347652 5.1432e-07 -3.92785e-08 -3.79369e-08
ITEM: TIMESTEP
10
ITEM: NUMBER OF ATOMS
384
ITEM: BOX BOUNDS xy xz yz pp pp mm